version 2
run General-0-20200908-21:30:58-6653
attr configname General
attr datetime 20200908-21:30:58
attr experiment General
attr inifile smart_clustered_4.ini
attr iterationvars ""
attr iterationvarsf ""
attr measurement ""
attr network Smart_clustered_4
attr processid 6653
attr repetition 0
attr replication #0
attr resultdir results
attr runnumber 0
attr seedset 0

vector 0 Smart_clustered_4.sensorNode "Residual Energy" ETV
vector 1 Smart_clustered_4.baseStation "Residual Energy" ETV
vector 2 Smart_clustered_4.sensorNodeTank "Residual Energy" ETV
vector 3 Smart_clustered_4.clusterHead "Residual Energy" ETV
vector 4 Smart_clustered_4.sensorNode1 "Residual Energy" ETV
vector 5 Smart_clustered_4.sensorNode2 "Residual Energy" ETV
0	0	0	50490
1	0	0	50490
2	0	0	50490
3	0	0	50490
4	0	0	50490
5	0	0	50490
0	88918	3600	50483.578883778
0	177838	7200	50477.13156343
0	266758	10800	50470.684243082
0	355678	14400	50464.236922734
0	444598	18000	50457.789602387
0	533518	21600	50451.342282039
0	622438	25200	50445.914961691
0	711358	28800	50490
0	800278	32400	50490
0	889198	36000	50490
0	978118	39600	50490
0	1067038	43200	50490
0	1155958	46800	50490
0	1244878	50400	50490
0	1333798	54000	50490
0	1422718	57600	50490
0	1511638	61200	50490
0	1600558	64800	50490
0	1689478	68400	50483.552679652
0	1778398	72000	50477.105359304
0	1867318	75600	50470.658038957
0	1956238	79200	50464.210718609
0	2045158	82800	50457.763398261
0	2134078	86400	50451.316077913
0	2222998	90000	50444.868757565
0	2311918	93600	50438.421437218
0	2400838	97200	50431.97411687
0	2489758	100800	50425.526796522
0	2578678	104400	50419.079476174
0	2667598	108000	50412.632155826
0	2756518	111600	50407.204835479
0	2845438	115200	50490
0	2934358	118800	50490
0	3023278	122400	50490
0	3112198	126000	50490
0	3201118	129600	50490
0	3290038	133200	50490
0	3378958	136800	50490
0	3467878	140400	50490
0	3556798	144000	50490
0	3645718	147600	50490
0	3734638	151200	50490
0	3823558	154800	50483.552679652
0	3912478	158400	50477.105359304
0	4001398	162000	50470.658038957
0	4090318	165600	50464.210718609
0	4179238	169200	50457.763398261
0	4268158	172800	50451.316077913
0	4357078	176400	50444.868757565
0	4445998	180000	50438.421437218
0	4534918	183600	50431.97411687
0	4623838	187200	50425.526796522
0	4712758	190800	50419.079476174
0	4801678	194400	50412.632155826
0	4890598	198000	50407.204835479
0	4979518	201600	50490
0	5068438	205200	50490
0	5157358	208800	50490
0	5246278	212400	50490
0	5335198	216000	50490
0	5424118	219600	50490
0	5513038	223200	50490
0	5601958	226800	50490
0	5690878	230400	50490
0	5779798	234000	50490
0	5868718	237600	50490
0	5957638	241200	50483.552679652
0	6046558	244800	50477.105359304
0	6135478	248400	50470.658038957
0	6224398	252000	50464.210718609
0	6313318	255600	50457.763398261
0	6402238	259200	50451.316077913
0	6491158	262800	50444.868757565
0	6580078	266400	50438.421437218
0	6668998	270000	50431.97411687
0	6757918	273600	50425.526796522
0	6846838	277200	50419.079476174
0	6935758	280800	50412.632155826
0	7024678	284400	50407.204835479
0	7113598	288000	50490
0	7202518	291600	50490
0	7291438	295200	50490
0	7380358	298800	50490
0	7469278	302400	50490
0	7558198	306000	50490
0	7647118	309600	50490
0	7736038	313200	50490
0	7824958	316800	50490
0	7913878	320400	50490
0	8002798	324000	50490
0	8091718	327600	50483.552679652
0	8180638	331200	50477.105359304
0	8269558	334800	50470.658038957
0	8358478	338400	50464.210718609
0	8447398	342000	50457.763398261
0	8536318	345600	50451.316077913
0	8625238	349200	50444.868757565
0	8714158	352800	50438.421437218
0	8803078	356400	50431.97411687
0	8891998	360000	50425.526796522
0	8980918	363600	50419.079476174
0	9069838	367200	50412.632155826
0	9158758	370800	50407.204835479
0	9247678	374400	50490
0	9336598	378000	50490
0	9425518	381600	50490
0	9514438	385200	50490
0	9603358	388800	50490
0	9692278	392400	50490
0	9781198	396000	50490
0	9870118	399600	50490
0	9959038	403200	50490
0	10047958	406800	50490
0	10136878	410400	50490
0	10225798	414000	50483.552679652
0	10314718	417600	50477.105359304
0	10403638	421200	50470.658038957
0	10492558	424800	50464.210718609
0	10581478	428400	50457.763398261
0	10670398	432000	50451.316077913
0	10759318	435600	50444.868757565
0	10848238	439200	50438.421437218
0	10937158	442800	50431.97411687
0	11026078	446400	50425.526796522
0	11114998	450000	50419.079476174
0	11203918	453600	50412.632155826
0	11292838	457200	50407.204835479
0	11381758	460800	50490
0	11470678	464400	50490
0	11559598	468000	50490
0	11648518	471600	50490
0	11737438	475200	50490
0	11826358	478800	50490
0	11915278	482400	50490
0	12004198	486000	50490
0	12093118	489600	50490
0	12182038	493200	50490
0	12270958	496800	50490
0	12359878	500400	50483.552679652
0	12448798	504000	50477.105359304
0	12537718	507600	50470.658038957
0	12626638	511200	50464.210718609
0	12715558	514800	50457.763398261
0	12804478	518400	50451.316077913
0	12893398	522000	50444.868757565
0	12982318	525600	50438.421437218
0	13071238	529200	50431.97411687
0	13160158	532800	50425.526796522
0	13249078	536400	50419.079476174
0	13337998	540000	50412.632155826
0	13426918	543600	50407.204835479
0	13515838	547200	50490
0	13604758	550800	50490
0	13693678	554400	50490
0	13782598	558000	50490
0	13871518	561600	50490
0	13960438	565200	50490
0	14049358	568800	50490
0	14138278	572400	50490
0	14227198	576000	50490
0	14316118	579600	50490
0	14405038	583200	50490
0	14493958	586800	50483.552679652
0	14582878	590400	50477.105359304
0	14671798	594000	50470.658038957
0	14760718	597600	50464.210718609
0	14849638	601200	50457.763398261
0	14938558	604800	50451.316077913
0	15027478	608400	50444.868757565
0	15116398	612000	50438.421437218
0	15205318	615600	50431.97411687
0	15294238	619200	50425.526796522
0	15383158	622800	50419.079476174
0	15472078	626400	50412.632155826
0	15560998	630000	50407.204835479
0	15649918	633600	50490
0	15738838	637200	50490
0	15827758	640800	50490
0	15916678	644400	50490
0	16005598	648000	50490
0	16094518	651600	50490
0	16183438	655200	50490
0	16272358	658800	50490
0	16361278	662400	50490
0	16450198	666000	50490
0	16539118	669600	50490
0	16628038	673200	50483.552679652
0	16716958	676800	50477.105359304
0	16805878	680400	50470.658038957
0	16894798	684000	50464.210718609
0	16983718	687600	50457.763398261
0	17072638	691200	50451.316077913
0	17161558	694800	50444.868757565
0	17250478	698400	50438.421437218
0	17339398	702000	50431.97411687
0	17428318	705600	50425.526796522
0	17517238	709200	50419.079476174
0	17606158	712800	50412.632155826
0	17695078	716400	50407.204835479
0	17783998	720000	50490
0	17872918	723600	50490
0	17961838	727200	50490
0	18050758	730800	50490
0	18139678	734400	50490
0	18228598	738000	50490
0	18317518	741600	50490
0	18406438	745200	50490
0	18495358	748800	50490
0	18584278	752400	50490
0	18673198	756000	50490
0	18762118	759600	50483.552679652
0	18851038	763200	50477.105359304
0	18939958	766800	50470.658038957
0	19028878	770400	50464.210718609
0	19117798	774000	50457.763398261
0	19206718	777600	50451.316077913
0	19295638	781200	50444.868757565
0	19384558	784800	50438.421437218
0	19473478	788400	50431.97411687
0	19562398	792000	50425.526796522
0	19651318	795600	50419.079476174
0	19740238	799200	50412.632155826
0	19829158	802800	50407.204835479
0	19918078	806400	50490
0	20006998	810000	50490
0	20095918	813600	50490
0	20184838	817200	50490
0	20273758	820800	50490
0	20362678	824400	50490
0	20451598	828000	50490
0	20540518	831600	50490
0	20629438	835200	50490
0	20718358	838800	50490
0	20807278	842400	50490
0	20896198	846000	50483.552679652
0	20985118	849600	50477.105359304
0	21074038	853200	50470.658038957
0	21162958	856800	50464.210718609
0	21251878	860400	50457.763398261
0	21340798	864000	50451.316077913
0	21429718	867600	50444.868757565
0	21518638	871200	50438.421437218
0	21607558	874800	50431.97411687
0	21696478	878400	50425.526796522
0	21785398	882000	50419.079476174
0	21874318	885600	50412.632155826
0	21963238	889200	50407.204835479
0	22052158	892800	50490
0	22141078	896400	50490
0	22229998	900000	50490
0	22318918	903600	50490
0	22407838	907200	50490
0	22496758	910800	50490
0	22585678	914400	50490
0	22674598	918000	50490
0	22763518	921600	50490
0	22852438	925200	50490
0	22941358	928800	50490
0	23030278	932400	50483.552679652
0	23119198	936000	50477.105359304
0	23208118	939600	50470.658038957
0	23297038	943200	50464.210718609
0	23385958	946800	50457.763398261
0	23474878	950400	50451.316077913
0	23563798	954000	50444.868757565
0	23652718	957600	50438.421437218
0	23741638	961200	50431.97411687
0	23830558	964800	50425.526796522
0	23919478	968400	50419.079476174
0	24008398	972000	50412.632155826
0	24097318	975600	50407.204835479
0	24186238	979200	50490
0	24275158	982800	50490
0	24364078	986400	50490
0	24452998	990000	50490
0	24541918	993600	50490
0	24630838	997200	50490
0	24719758	1000800	50490
0	24808678	1004400	50490
0	24897598	1008000	50490
0	24986518	1011600	50490
0	25075438	1015200	50490
0	25164358	1018800	50483.552679652
0	25253278	1022400	50477.105359304
0	25342198	1026000	50470.658038957
0	25431118	1029600	50464.210718609
0	25520038	1033200	50457.763398261
0	25608958	1036800	50451.316077913
0	25697878	1040400	50444.868757565
0	25786798	1044000	50438.421437218
0	25875718	1047600	50431.97411687
0	25964638	1051200	50425.526796522
0	26053558	1054800	50419.079476174
0	26142478	1058400	50412.632155826
0	26231398	1062000	50407.204835479
0	26320318	1065600	50490
0	26409238	1069200	50490
0	26498158	1072800	50490
0	26587078	1076400	50490
0	26675998	1080000	50490
0	26764918	1083600	50490
0	26853838	1087200	50490
0	26942758	1090800	50490
0	27031678	1094400	50490
0	27120598	1098000	50490
0	27209518	1101600	50490
0	27298438	1105200	50483.552679652
0	27387358	1108800	50477.105359304
0	27476278	1112400	50470.658038957
0	27565198	1116000	50464.210718609
0	27654118	1119600	50457.763398261
0	27743038	1123200	50451.316077913
0	27831958	1126800	50444.868757565
0	27920878	1130400	50438.421437218
0	28009798	1134000	50431.97411687
0	28098718	1137600	50425.526796522
0	28187638	1141200	50419.079476174
0	28276558	1144800	50412.632155826
0	28365478	1148400	50407.204835479
0	28454398	1152000	50490
0	28543318	1155600	50490
0	28632238	1159200	50490
0	28721158	1162800	50490
0	28810078	1166400	50490
0	28898998	1170000	50490
0	28987918	1173600	50490
0	29076838	1177200	50490
0	29165758	1180800	50490
0	29254678	1184400	50490
0	29343598	1188000	50490
0	29432518	1191600	50483.552679652
0	29521438	1195200	50477.105359304
0	29610358	1198800	50470.658038957
0	29699278	1202400	50464.210718609
0	29788198	1206000	50457.763398261
0	29877118	1209600	50451.316077913
0	29966038	1213200	50444.868757565
0	30054958	1216800	50438.421437218
0	30143878	1220400	50431.97411687
0	30232798	1224000	50425.526796522
0	30321718	1227600	50419.079476174
0	30410638	1231200	50412.632155826
0	30499558	1234800	50407.204835479
0	30588478	1238400	50490
0	30677398	1242000	50490
0	30766318	1245600	50490
0	30855238	1249200	50490
0	30944158	1252800	50490
0	31033078	1256400	50490
0	31121998	1260000	50490
0	31210918	1263600	50490
0	31299838	1267200	50490
0	31388758	1270800	50490
0	31477678	1274400	50490
0	31566598	1278000	50483.552679652
0	31655518	1281600	50477.105359304
0	31744438	1285200	50470.658038957
0	31833358	1288800	50464.210718609
0	31922278	1292400	50457.763398261
0	32011198	1296000	50451.316077913
0	32100118	1299600	50444.868757565
0	32189038	1303200	50438.421437218
0	32277958	1306800	50431.97411687
0	32366878	1310400	50425.526796522
0	32455798	1314000	50419.079476174
0	32544718	1317600	50412.632155826
0	32633638	1321200	50407.204835479
0	32722558	1324800	50490
0	32811478	1328400	50490
0	32900398	1332000	50490
0	32989318	1335600	50490
0	33078238	1339200	50490
0	33167158	1342800	50490
0	33256078	1346400	50490
0	33344998	1350000	50490
0	33433918	1353600	50490
0	33522838	1357200	50490
0	33611758	1360800	50490
0	33700678	1364400	50483.552679652
0	33789598	1368000	50477.105359304
0	33878518	1371600	50470.658038957
0	33967438	1375200	50464.210718609
0	34056358	1378800	50457.763398261
0	34145278	1382400	50451.316077913
0	34234198	1386000	50444.868757565
0	34323118	1389600	50438.421437218
0	34412038	1393200	50431.97411687
0	34500958	1396800	50425.526796522
0	34589878	1400400	50419.079476174
0	34678798	1404000	50412.632155826
0	34767718	1407600	50407.204835479
0	34856638	1411200	50490
0	34945558	1414800	50490
0	35034478	1418400	50490
0	35123398	1422000	50490
0	35212318	1425600	50490
0	35301238	1429200	50490
0	35390158	1432800	50490
0	35479078	1436400	50490
0	35567998	1440000	50490
0	35656918	1443600	50490
0	35745838	1447200	50490
0	35834758	1450800	50483.552679652
0	35923678	1454400	50477.105359304
0	36012598	1458000	50470.658038957
0	36101518	1461600	50464.210718609
0	36190438	1465200	50457.763398261
0	36279358	1468800	50451.316077913
0	36368278	1472400	50444.868757565
0	36457198	1476000	50438.421437218
0	36546118	1479600	50431.97411687
0	36635038	1483200	50425.526796522
0	36723958	1486800	50419.079476174
0	36812878	1490400	50412.632155826
0	36901798	1494000	50407.204835479
0	36990718	1497600	50490
0	37079638	1501200	50490
0	37168558	1504800	50490
0	37257478	1508400	50490
0	37346398	1512000	50490
0	37435318	1515600	50490
0	37524238	1519200	50490
0	37613158	1522800	50490
0	37702078	1526400	50490
0	37790998	1530000	50490
0	37879918	1533600	50490
0	37968838	1537200	50483.552679652
0	38057758	1540800	50477.105359304
0	38146678	1544400	50470.658038957
0	38235598	1548000	50464.210718609
0	38324518	1551600	50457.763398261
0	38413438	1555200	50451.316077913
0	38502358	1558800	50444.868757565
0	38591278	1562400	50438.421437218
0	38680198	1566000	50431.97411687
0	38769118	1569600	50425.526796522
0	38858038	1573200	50419.079476174
0	38946958	1576800	50412.632155826
0	39035878	1580400	50407.204835479
0	39124798	1584000	50490
0	39213718	1587600	50490
0	39302638	1591200	50490
0	39391558	1594800	50490
0	39480478	1598400	50490
0	39569398	1602000	50490
0	39658318	1605600	50490
0	39747238	1609200	50490
0	39836158	1612800	50490
0	39925078	1616400	50490
0	40013998	1620000	50490
0	40102918	1623600	50483.552679652
0	40191838	1627200	50477.105359304
0	40280758	1630800	50470.658038957
0	40369678	1634400	50464.210718609
0	40458598	1638000	50457.763398261
0	40547518	1641600	50451.316077913
0	40636438	1645200	50444.868757565
0	40725358	1648800	50438.421437218
0	40814278	1652400	50431.97411687
0	40903198	1656000	50425.526796522
0	40992118	1659600	50419.079476174
0	41081038	1663200	50412.632155826
0	41169958	1666800	50407.204835479
0	41258878	1670400	50490
0	41347798	1674000	50490
0	41436718	1677600	50490
0	41525638	1681200	50490
0	41614558	1684800	50490
0	41703478	1688400	50490
0	41792398	1692000	50490
0	41881318	1695600	50490
0	41970238	1699200	50490
0	42059158	1702800	50490
0	42148078	1706400	50490
0	42236998	1710000	50483.552679652
0	42325918	1713600	50477.105359304
0	42414838	1717200	50470.658038957
0	42503758	1720800	50464.210718609
0	42592678	1724400	50457.763398261
0	42681598	1728000	50451.316077913
0	42770518	1731600	50444.868757565
0	42859438	1735200	50438.421437218
0	42948358	1738800	50431.97411687
0	43037278	1742400	50425.526796522
0	43126198	1746000	50419.079476174
0	43215118	1749600	50412.632155826
0	43304038	1753200	50407.204835479
0	43392958	1756800	50490
0	43481878	1760400	50490
0	43570798	1764000	50490
0	43659718	1767600	50490
0	43748638	1771200	50490
0	43837558	1774800	50490
0	43926478	1778400	50490
0	44015398	1782000	50490
0	44104318	1785600	50490
0	44193238	1789200	50490
0	44282158	1792800	50490
0	44371078	1796400	50483.552679652
0	44459998	1800000	50477.105359304
0	44548918	1803600	50470.658038957
0	44637838	1807200	50464.210718609
0	44726758	1810800	50457.763398261
0	44815678	1814400	50451.316077913
0	44904598	1818000	50444.868757565
0	44993518	1821600	50438.421437218
0	45082438	1825200	50431.97411687
0	45171358	1828800	50425.526796522
0	45260278	1832400	50419.079476174
0	45349198	1836000	50412.632155826
0	45438118	1839600	50407.204835479
0	45527038	1843200	50490
0	45615958	1846800	50490
0	45704878	1850400	50490
0	45793798	1854000	50490
0	45882718	1857600	50490
0	45971638	1861200	50490
0	46060558	1864800	50490
0	46149478	1868400	50490
0	46238398	1872000	50490
0	46327318	1875600	50490
0	46416238	1879200	50490
0	46505158	1882800	50483.552679652
0	46594078	1886400	50477.105359304
0	46682998	1890000	50470.658038957
0	46771918	1893600	50464.210718609
0	46860838	1897200	50457.763398261
0	46949758	1900800	50451.316077913
0	47038678	1904400	50444.868757565
0	47127598	1908000	50438.421437218
0	47216518	1911600	50431.97411687
0	47305438	1915200	50425.526796522
0	47394358	1918800	50419.079476174
0	47483278	1922400	50412.632155826
0	47572198	1926000	50407.204835479
0	47661118	1929600	50490
0	47750038	1933200	50490
0	47838958	1936800	50490
0	47927878	1940400	50490
0	48016798	1944000	50490
0	48105718	1947600	50490
0	48194638	1951200	50490
0	48283558	1954800	50490
0	48372478	1958400	50490
0	48461398	1962000	50490
0	48550318	1965600	50490
0	48639238	1969200	50483.552679652
0	48728158	1972800	50477.105359304
0	48817078	1976400	50470.658038957
0	48905998	1980000	50464.210718609
0	48994918	1983600	50457.763398261
0	49083838	1987200	50451.316077913
0	49172758	1990800	50444.868757565
0	49261678	1994400	50438.421437218
0	49350598	1998000	50431.97411687
0	49439518	2001600	50425.526796522
0	49528438	2005200	50419.079476174
0	49617358	2008800	50412.632155826
0	49706278	2012400	50407.204835479
0	49795198	2016000	50490
0	49884118	2019600	50490
0	49973038	2023200	50490
0	50061958	2026800	50490
0	50150878	2030400	50490
0	50239798	2034000	50490
0	50328718	2037600	50490
0	50417638	2041200	50490
0	50506558	2044800	50490
0	50595478	2048400	50490
0	50684398	2052000	50490
0	50773318	2055600	50483.552679652
0	50862238	2059200	50477.105359304
0	50951158	2062800	50470.658038957
0	51040078	2066400	50464.210718609
0	51128998	2070000	50457.763398261
0	51217918	2073600	50451.316077913
0	51306838	2077200	50444.868757565
0	51395758	2080800	50438.421437218
0	51484678	2084400	50431.97411687
0	51573598	2088000	50425.526796522
0	51662518	2091600	50419.079476174
0	51751438	2095200	50412.632155826
0	51840358	2098800	50407.204835479
0	51929278	2102400	50490
0	52018198	2106000	50490
0	52107118	2109600	50490
0	52196038	2113200	50490
0	52284958	2116800	50490
0	52373878	2120400	50490
0	52462798	2124000	50490
0	52551718	2127600	50490
0	52640638	2131200	50490
0	52729558	2134800	50490
0	52818478	2138400	50490
0	52907398	2142000	50483.552679652
0	52996318	2145600	50477.105359304
0	53085238	2149200	50470.658038957
0	53174158	2152800	50464.210718609
0	53263078	2156400	50457.763398261
0	53351998	2160000	50451.316077913
0	53440918	2163600	50444.868757565
0	53529838	2167200	50438.421437218
0	53618758	2170800	50431.97411687
0	53707678	2174400	50425.526796522
0	53796598	2178000	50419.079476174
0	53885518	2181600	50412.632155826
0	53974438	2185200	50407.204835479
0	54063358	2188800	50490
0	54152278	2192400	50490
0	54241198	2196000	50490
0	54330118	2199600	50490
0	54419038	2203200	50490
0	54507958	2206800	50490
0	54596878	2210400	50490
0	54685798	2214000	50490
0	54774718	2217600	50490
0	54863638	2221200	50490
0	54952558	2224800	50490
0	55041478	2228400	50483.552679652
0	55130398	2232000	50477.105359304
0	55219318	2235600	50470.658038957
0	55308238	2239200	50464.210718609
0	55397158	2242800	50457.763398261
0	55486078	2246400	50451.316077913
0	55574998	2250000	50444.868757565
0	55663918	2253600	50438.421437218
0	55752838	2257200	50431.97411687
0	55841758	2260800	50425.526796522
0	55930678	2264400	50419.079476174
0	56019598	2268000	50412.632155826
0	56108518	2271600	50407.204835479
0	56197438	2275200	50490
0	56286358	2278800	50490
0	56375278	2282400	50490
0	56464198	2286000	50490
0	56553118	2289600	50490
0	56642038	2293200	50490
0	56730958	2296800	50490
0	56819878	2300400	50490
0	56908798	2304000	50490
0	56997718	2307600	50490
0	57086638	2311200	50490
0	57175558	2314800	50483.552679652
0	57264478	2318400	50477.105359304
0	57353398	2322000	50470.658038957
0	57442318	2325600	50464.210718609
0	57531238	2329200	50457.763398261
0	57620158	2332800	50451.316077913
0	57709078	2336400	50444.868757565
0	57797998	2340000	50438.421437218
0	57886918	2343600	50431.97411687
0	57975838	2347200	50425.526796522
0	58064758	2350800	50419.079476174
0	58153678	2354400	50412.632155826
0	58242598	2358000	50407.204835479
0	58331518	2361600	50490
0	58420438	2365200	50490
0	58509358	2368800	50490
0	58598278	2372400	50490
0	58687198	2376000	50490
0	58776118	2379600	50490
0	58865038	2383200	50490
0	58953958	2386800	50490
0	59042878	2390400	50490
0	59131798	2394000	50490
0	59220718	2397600	50490
0	59309638	2401200	50483.552679652
0	59398558	2404800	50477.105359304
0	59487478	2408400	50470.658038957
0	59576398	2412000	50464.210718609
0	59665318	2415600	50457.763398261
0	59754238	2419200	50451.316077913
0	59843158	2422800	50444.868757565
0	59932078	2426400	50438.421437218
0	60020998	2430000	50431.97411687
0	60109918	2433600	50425.526796522
0	60198838	2437200	50419.079476174
0	60287758	2440800	50412.632155826
0	60376678	2444400	50407.204835479
0	60465598	2448000	50490
0	60554518	2451600	50490
0	60643438	2455200	50490
0	60732358	2458800	50490
0	60821278	2462400	50490
0	60910198	2466000	50490
0	60999118	2469600	50490
0	61088038	2473200	50490
0	61176958	2476800	50490
0	61265878	2480400	50490
0	61354798	2484000	50490
0	61443718	2487600	50483.552679652
0	61532638	2491200	50477.105359304
0	61621558	2494800	50470.658038957
0	61710478	2498400	50464.210718609
0	61799398	2502000	50457.763398261
0	61888318	2505600	50451.316077913
0	61977238	2509200	50444.868757565
0	62066158	2512800	50438.421437218
0	62155078	2516400	50431.97411687
0	62243998	2520000	50425.526796522
0	62332918	2523600	50419.079476174
0	62421838	2527200	50412.632155826
0	62510758	2530800	50407.204835479
0	62599678	2534400	50490
0	62688598	2538000	50490
0	62777518	2541600	50490
0	62866438	2545200	50490
0	62955358	2548800	50490
0	63044278	2552400	50490
0	63133198	2556000	50490
0	63222118	2559600	50490
0	63311038	2563200	50490
0	63399958	2566800	50490
0	63488878	2570400	50490
0	63577798	2574000	50483.552679652
0	63666718	2577600	50477.105359304
0	63755638	2581200	50470.658038957
0	63844558	2584800	50464.210718609
0	63933478	2588400	50457.763398261
0	64022398	2592000	50451.316077913
1	88920	3600	50489.45352
1	177840	7200	50488.90704
1	266760	10800	50488.36056
1	355680	14400	50487.81408
1	444600	18000	50487.2676
1	533520	21600	50486.721120001
1	622440	25200	50487.194640001
1	711360	28800	50490
1	800280	32400	50490
1	889200	36000	50490
1	978120	39600	50490
1	1067040	43200	50490
1	1155960	46800	50490
1	1244880	50400	50490
1	1333800	54000	50490
1	1422720	57600	50490
1	1511640	61200	50490
1	1600560	64800	50490
1	1689480	68400	50489.45352
1	1778400	72000	50488.90704
1	1867320	75600	50488.36056
1	1956240	79200	50487.81408
1	2045160	82800	50487.2676
1	2134080	86400	50486.721120001
1	2223000	90000	50486.174640001
1	2311920	93600	50485.628160001
1	2400840	97200	50485.081680001
1	2489760	100800	50484.535200001
1	2578680	104400	50483.988720001
1	2667600	108000	50483.442240001
1	2756520	111600	50483.915760001
1	2845440	115200	50490
1	2934360	118800	50490
1	3023280	122400	50490
1	3112200	126000	50490
1	3201120	129600	50490
1	3290040	133200	50490
1	3378960	136800	50490
1	3467880	140400	50490
1	3556800	144000	50490
1	3645720	147600	50490
1	3734640	151200	50490
1	3823560	154800	50489.45352
1	3912480	158400	50488.90704
1	4001400	162000	50488.36056
1	4090320	165600	50487.81408
1	4179240	169200	50487.2676
1	4268160	172800	50486.721120001
1	4357080	176400	50486.174640001
1	4446000	180000	50485.628160001
1	4534920	183600	50485.081680001
1	4623840	187200	50484.535200001
1	4712760	190800	50483.988720001
1	4801680	194400	50483.442240001
1	4890600	198000	50483.915760001
1	4979520	201600	50490
1	5068440	205200	50490
1	5157360	208800	50490
1	5246280	212400	50490
1	5335200	216000	50490
1	5424120	219600	50490
1	5513040	223200	50490
1	5601960	226800	50490
1	5690880	230400	50490
1	5779800	234000	50490
1	5868720	237600	50490
1	5957640	241200	50489.45352
1	6046560	244800	50488.90704
1	6135480	248400	50488.36056
1	6224400	252000	50487.81408
1	6313320	255600	50487.2676
1	6402240	259200	50486.721120001
1	6491160	262800	50486.174640001
1	6580080	266400	50485.628160001
1	6669000	270000	50485.081680001
1	6757920	273600	50484.535200001
1	6846840	277200	50483.988720001
1	6935760	280800	50483.442240001
1	7024680	284400	50483.915760001
1	7113600	288000	50490
1	7202520	291600	50490
1	7291440	295200	50490
1	7380360	298800	50490
1	7469280	302400	50490
1	7558200	306000	50490
1	7647120	309600	50490
1	7736040	313200	50490
1	7824960	316800	50490
1	7913880	320400	50490
1	8002800	324000	50490
1	8091720	327600	50489.45352
1	8180640	331200	50488.90704
1	8269560	334800	50488.36056
1	8358480	338400	50487.81408
1	8447400	342000	50487.2676
1	8536320	345600	50486.721120001
1	8625240	349200	50486.174640001
1	8714160	352800	50485.628160001
1	8803080	356400	50485.081680001
1	8892000	360000	50484.535200001
1	8980920	363600	50483.988720001
1	9069840	367200	50483.442240001
1	9158760	370800	50483.915760001
1	9247680	374400	50490
1	9336600	378000	50490
1	9425520	381600	50490
1	9514440	385200	50490
1	9603360	388800	50490
1	9692280	392400	50490
1	9781200	396000	50490
1	9870120	399600	50490
1	9959040	403200	50490
1	10047960	406800	50490
1	10136880	410400	50490
1	10225800	414000	50489.45352
1	10314720	417600	50488.90704
1	10403640	421200	50488.36056
1	10492560	424800	50487.81408
1	10581480	428400	50487.2676
1	10670400	432000	50486.721120001
1	10759320	435600	50486.174640001
1	10848240	439200	50485.628160001
1	10937160	442800	50485.081680001
1	11026080	446400	50484.535200001
1	11115000	450000	50483.988720001
1	11203920	453600	50483.442240001
1	11292840	457200	50483.915760001
1	11381760	460800	50490
1	11470680	464400	50490
1	11559600	468000	50490
1	11648520	471600	50490
1	11737440	475200	50490
1	11826360	478800	50490
1	11915280	482400	50490
1	12004200	486000	50490
1	12093120	489600	50490
1	12182040	493200	50490
1	12270960	496800	50490
1	12359880	500400	50489.45352
1	12448800	504000	50488.90704
1	12537720	507600	50488.36056
1	12626640	511200	50487.81408
1	12715560	514800	50487.2676
1	12804480	518400	50486.721120001
1	12893400	522000	50486.174640001
1	12982320	525600	50485.628160001
1	13071240	529200	50485.081680001
1	13160160	532800	50484.535200001
1	13249080	536400	50483.988720001
1	13338000	540000	50483.442240001
1	13426920	543600	50483.915760001
1	13515840	547200	50490
1	13604760	550800	50490
1	13693680	554400	50490
1	13782600	558000	50490
1	13871520	561600	50490
1	13960440	565200	50490
1	14049360	568800	50490
1	14138280	572400	50490
1	14227200	576000	50490
1	14316120	579600	50490
1	14405040	583200	50490
1	14493960	586800	50489.45352
1	14582880	590400	50488.90704
1	14671800	594000	50488.36056
1	14760720	597600	50487.81408
1	14849640	601200	50487.2676
1	14938560	604800	50486.721120001
1	15027480	608400	50486.174640001
1	15116400	612000	50485.628160001
1	15205320	615600	50485.081680001
1	15294240	619200	50484.535200001
1	15383160	622800	50483.988720001
1	15472080	626400	50483.442240001
1	15561000	630000	50483.915760001
1	15649920	633600	50490
1	15738840	637200	50490
1	15827760	640800	50490
1	15916680	644400	50490
1	16005600	648000	50490
1	16094520	651600	50490
1	16183440	655200	50490
1	16272360	658800	50490
1	16361280	662400	50490
1	16450200	666000	50490
1	16539120	669600	50490
1	16628040	673200	50489.45352
1	16716960	676800	50488.90704
1	16805880	680400	50488.36056
1	16894800	684000	50487.81408
1	16983720	687600	50487.2676
1	17072640	691200	50486.721120001
1	17161560	694800	50486.174640001
1	17250480	698400	50485.628160001
1	17339400	702000	50485.081680001
1	17428320	705600	50484.535200001
1	17517240	709200	50483.988720001
1	17606160	712800	50483.442240001
1	17695080	716400	50483.915760001
1	17784000	720000	50490
1	17872920	723600	50490
1	17961840	727200	50490
1	18050760	730800	50490
1	18139680	734400	50490
1	18228600	738000	50490
1	18317520	741600	50490
1	18406440	745200	50490
1	18495360	748800	50490
1	18584280	752400	50490
1	18673200	756000	50490
1	18762120	759600	50489.45352
1	18851040	763200	50488.90704
1	18939960	766800	50488.36056
1	19028880	770400	50487.81408
1	19117800	774000	50487.2676
1	19206720	777600	50486.721120001
1	19295640	781200	50486.174640001
1	19384560	784800	50485.628160001
1	19473480	788400	50485.081680001
1	19562400	792000	50484.535200001
1	19651320	795600	50483.988720001
1	19740240	799200	50483.442240001
1	19829160	802800	50483.915760001
1	19918080	806400	50490
1	20007000	810000	50490
1	20095920	813600	50490
1	20184840	817200	50490
1	20273760	820800	50490
1	20362680	824400	50490
1	20451600	828000	50490
1	20540520	831600	50490
1	20629440	835200	50490
1	20718360	838800	50490
1	20807280	842400	50490
1	20896200	846000	50489.45352
1	20985120	849600	50488.90704
1	21074040	853200	50488.36056
1	21162960	856800	50487.81408
1	21251880	860400	50487.2676
1	21340800	864000	50486.721120001
1	21429720	867600	50486.174640001
1	21518640	871200	50485.628160001
1	21607560	874800	50485.081680001
1	21696480	878400	50484.535200001
1	21785400	882000	50483.988720001
1	21874320	885600	50483.442240001
1	21963240	889200	50483.915760001
1	22052160	892800	50490
1	22141080	896400	50490
1	22230000	900000	50490
1	22318920	903600	50490
1	22407840	907200	50490
1	22496760	910800	50490
1	22585680	914400	50490
1	22674600	918000	50490
1	22763520	921600	50490
1	22852440	925200	50490
1	22941360	928800	50490
1	23030280	932400	50489.45352
1	23119200	936000	50488.90704
1	23208120	939600	50488.36056
1	23297040	943200	50487.81408
1	23385960	946800	50487.2676
1	23474880	950400	50486.721120001
1	23563800	954000	50486.174640001
1	23652720	957600	50485.628160001
1	23741640	961200	50485.081680001
1	23830560	964800	50484.535200001
1	23919480	968400	50483.988720001
1	24008400	972000	50483.442240001
1	24097320	975600	50483.915760001
1	24186240	979200	50490
1	24275160	982800	50490
1	24364080	986400	50490
1	24453000	990000	50490
1	24541920	993600	50490
1	24630840	997200	50490