file 127851 1599591922                                          
version 2
run General-0-20200908-21:30:58-6653
attr configname General
attr datetime 20200908-21:30:58
attr experiment General
attr inifile smart_clustered_4.ini
attr iterationvars ""
attr iterationvarsf ""
attr measurement ""
attr network Smart_clustered_4
attr processid 6653
attr repetition 0
attr replication #0
attr resultdir results
attr runnumber 0
attr seedset 0

vector 0 Smart_clustered_4.sensorNode "Residual Energy" ETV
vector 1 Smart_clustered_4.baseStation "Residual Energy" ETV
vector 2 Smart_clustered_4.sensorNodeTank "Residual Energy" ETV
vector 3 Smart_clustered_4.clusterHead "Residual Energy" ETV
vector 4 Smart_clustered_4.sensorNode1 "Residual Energy" ETV
vector 5 Smart_clustered_4.sensorNode2 "Residual Energy" ETV
0	740 12 0 0 0 0 1 50490 50490 50490 2549240100
1	752 12 0 0 0 0 1 50490 50490 50490 2549240100
2	764 12 0 0 0 0 1 50490 50490 50490 2549240100
3	776 12 0 0 0 0 1 50490 50490 50490 2549240100
4	788 12 0 0 0 0 1 50490 50490 50490 2549240100
5	800 12 0 0 0 0 1 50490 50490 50490 2549240100
0	812 21440 88918 64022398 3600 2592000 720 50407.204835479 50490 36335500.386334 1833706948865.6
1	22252 20819 88920 64022400 3600 2592000 720 50483.442240001 50490 36351361.66176 1835307635369.7
2	43071 20813 88916 64022396 3600 2592000 720 49616.196335999 50490 36171949.389608 1817299124252.8
3	63884 20881 88917 64022397 3600 2592000 720 50474.464031999 50490 36349407.335232 1835110318641.5
4	84765 21440 88919 64022399 3600 2592000 720 50407.204835479 50490 36335500.383114 1833706948540.5
5	106205 21439 88915 64022395 3600 2592000 720 50407.204835479 50490 36335500.378888 1833706948114
0	127644 35 64022660 64022660 2592010 2592010 1 50451.208622574 50451.208622574 50451.208622574 2545324451.4785
1	127679 35 64022660 64022660 2592010 2592010 1 50486.712012001 50486.712012001 50486.712012001 2548908089.7827
2	127714 33 64022660 64022660 2592010 2592010 1 50085.1136632 50085.1136632 50085.1136632 2508518610.6556
3	127747 33 64022660 64022660 2592010 2592010 1 50482.3375584 50482.3375584 50482.3375584 2548466405.3602
4	127780 35 64022660 64022660 2592010 2592010 1 50451.208622574 50451.208622574 50451.208622574 2545324451.4785
5	127815 35 64022660 64022660 2592010 2592010 1 50451.208622574 50451.208622574 50451.208622574 2545324451.4785

